<?xml version="1.0" encoding="UTF-8"?>

<!-- generated on 2024-03-07 22:27:34 by Eclipse SUMO sumo Version 1.19.0
<configuration xmlns:xsi="http://www.w3.org/2001/XMLSchema-instance" xsi:noNamespaceSchemaLocation="http://sumo.dlr.de/xsd/sumoConfiguration.xsd">

    <input>
        <net-file value="l3harris.net.xml"/>
        <route-files value="has_0a4e2b81-9dc5-802a-d184-18e8f03087a9_duarouter_input.rou.xml"/>
    </input>

    <output>
        <fcd-output value="fcdOutputGeo.xml"/>
        <fcd-output.geo value="true"/>
    </output>

    <gui_only>
        <start value="false"/>
    </gui_only>

</configuration>
-->

<fcd-export xmlns:xsi="http://www.w3.org/2001/XMLSchema-instance" xsi:noNamespaceSchemaLocation="http://sumo.dlr.de/xsd/fcd_file.xsd">
    <timestep time="0.00">
        <vehicle id="15a26312-4d07-4d65-8bd3-ca8d4cd44065" x="-122.472818" y="37.779740" angle="176.40" type="veh_passenger" speed="0.00" pos="82.90" lane="24604614#1_0" slope="0.00"/>
        <vehicle id="19d26bbc-05da-4564-9e4a-8f330ecedc8a" x="-122.402734" y="37.774435" angle="135.09" type="veh_passenger" speed="0.00" pos="36.36" lane="8920936#2_0" slope="0.00"/>
        <vehicle id="c54973ae-c1c9-421a-8236-21e17fec565c" x="-122.455183" y="37.768190" angle="68.96" type="veh_passenger" speed="0.00" pos="26.22" lane="514610065_0" slope="0.00"/>
    </timestep>
    <timestep time="1.00">
        <vehicle id="15a26312-4d07-4d65-8bd3-ca8d4cd44065" x="-122.472817" y="37.779720" angle="176.40" type="veh_passenger" speed="2.21" pos="85.11" lane="24604614#1_0" slope="0.00"/>
        <vehicle id="19d26bbc-05da-4564-9e4a-8f330ecedc8a" x="-122.402723" y="37.774426" angle="135.10" type="veh_passenger" speed="1.36" pos="1.32" lane=":5435466204_7_0" slope="0.00"/>
    </timestep>
    <timestep time="2.00">
        <vehicle id="15a26312-4d07-4d65-8bd3-ca8d4cd44065" x="-122.472814" y="37.779679" angle="176.40" type="veh_passenger" speed="4.51" pos="89.61" lane="24604614#1_0" slope="0.00"/>
        <vehicle id="19d26bbc-05da-4564-9e4a-8f330ecedc8a" x="-122.402692" y="37.774401" angle="135.13" type="veh_passenger" speed="3.91" pos="5.23" lane=":5435466204_7_0" slope="0.00"/>
    </timestep>
    <timestep time="3.00">
        <vehicle id="15a26312-4d07-4d65-8bd3-ca8d4cd44065" x="-122.472809" y="37.779617" angle="176.40" type="veh_passenger" speed="6.90" pos="96.52" lane="24604614#1_0" slope="0.00"/>
        <vehicle id="19d26bbc-05da-4564-9e4a-8f330ecedc8a" x="-122.402641" y="37.774360" angle="135.14" type="veh_passenger" speed="6.44" pos="2.25" lane="8920936#3_0" slope="0.00"/>
    </timestep>
    <timestep time="4.00">
        <vehicle id="15a26312-4d07-4d65-8bd3-ca8d4cd44065" x="-122.472804" y="37.779540" angle="176.40" type="veh_passenger" speed="8.59" pos="105.11" lane="24604614#1_0" slope="0.00"/>
        <vehicle id="19d26bbc-05da-4564-9e4a-8f330ecedc8a" x="-122.402576" y="37.774308" angle="135.16" type="veh_passenger" speed="8.10" pos="10.35" lane="8920936#3_0" slope="0.00"/>
    </timestep>
    <timestep time="5.00">
        <vehicle id="15a26312-4d07-4d65-8bd3-ca8d4cd44065" x="-122.472797" y="37.779447" angle="176.40" type="veh_passenger" speed="10.31" pos="115.41" lane="24604614#1_0" slope="0.00"/>
        <vehicle id="19d26bbc-05da-4564-9e4a-8f330ecedc8a" x="-122.402493" y="37.774240" angle="135.16" type="veh_passenger" speed="10.47" pos="20.82" lane="8920936#3_0" slope="0.00"/>
    </timestep>
    <timestep time="6.00">
        <vehicle id="15a26312-4d07-4d65-8bd3-ca8d4cd44065" x="-122.472789" y="37.779339" angle="176.45" type="veh_passenger" speed="12.05" pos="127.46" lane="24604614#1_0" slope="0.00"/>
        <vehicle id="19d26bbc-05da-4564-9e4a-8f330ecedc8a" x="-122.402389" y="37.774156" angle="135.16" type="veh_passenger" speed="13.04" pos="33.86" lane="8920936#3_0" slope="0.00"/>
    </timestep>
    <timestep time="7.00">
        <vehicle id="15a26312-4d07-4d65-8bd3-ca8d4cd44065" x="-122.472781" y="37.779227" angle="176.45" type="veh_passenger" speed="12.43" pos="139.89" lane="24604614#1_0" slope="0.00"/>
        <vehicle id="19d26bbc-05da-4564-9e4a-8f330ecedc8a" x="-122.402283" y="37.774071" angle="135.16" type="veh_passenger" speed="13.34" pos="47.20" lane="8920936#3_0" slope="0.00"/>
    </timestep>
    <timestep time="8.00">
        <vehicle id="15a26312-4d07-4d65-8bd3-ca8d4cd44065" x="-122.472774" y="37.779116" angle="176.45" type="veh_passenger" speed="12.28" pos="152.17" lane="24604614#1_0" slope="0.00"/>
        <vehicle id="19d26bbc-05da-4564-9e4a-8f330ecedc8a" x="-122.402212" y="37.774013" angle="135.09" type="veh_passenger" speed="8.92" pos="2.06" lane=":10264127958_0_0" slope="0.00"/>
    </timestep>
    <timestep time="9.00">
        <vehicle id="15a26312-4d07-4d65-8bd3-ca8d4cd44065" x="-122.472766" y="37.779010" angle="176.45" type="veh_passenger" speed="11.85" pos="164.02" lane="24604614#1_0" slope="0.00"/>
        <vehicle id="19d26bbc-05da-4564-9e4a-8f330ecedc8a" x="-122.402177" y="37.773985" angle="134.93" type="veh_passenger" speed="4.42" pos="1.29" lane=":11667639508_3_0" slope="0.00"/>
    </timestep>
    <timestep time="10.00">
        <vehicle id="15a26312-4d07-4d65-8bd3-ca8d4cd44065" x="-122.472758" y="37.778904" angle="176.45" type="veh_passenger" speed="11.78" pos="175.80" lane="24604614#1_0" slope="0.00"/>
        <vehicle id="19d26bbc-05da-4564-9e4a-8f330ecedc8a" x="-122.402189" y="37.773945" angle="194.70" type="veh_passenger" speed="5.14" pos="4.69" lane=":65315489_5_0" slope="0.00"/>
    </timestep>
    <timestep time="11.00">
        <vehicle id="15a26312-4d07-4d65-8bd3-ca8d4cd44065" x="-122.472753" y="37.778824" angle="176.45" type="veh_passenger" speed="8.82" pos="184.63" lane="24604614#1_0" slope="0.00"/>
        <vehicle id="19d26bbc-05da-4564-9e4a-8f330ecedc8a" x="-122.402235" y="37.773907" angle="223.74" type="veh_passenger" speed="5.85" pos="4.25" lane="-247966218#2_0" slope="0.00"/>
    </timestep>
    <timestep time="12.00">
        <vehicle id="15a26312-4d07-4d65-8bd3-ca8d4cd44065" x="-122.472750" y="37.778785" angle="176.45" type="veh_passenger" speed="4.32" pos="188.95" lane="24604614#1_0" slope="0.00"/>
        <vehicle id="19d26bbc-05da-4564-9e4a-8f330ecedc8a" x="-122.402296" y="37.773858" angle="224.57" type="veh_passenger" speed="7.73" pos="4.23" lane=":cluster_11667625376_65315491_0_0" slope="0.00"/>
    </timestep>
    <timestep time="13.00">
        <vehicle id="15a26312-4d07-4d65-8bd3-ca8d4cd44065" x="-122.472729" y="37.778730" angle="159.96" type="veh_passenger" speed="6.52" pos="5.74" lane=":65308520_14_0" slope="0.00"/>
        <vehicle id="19d26bbc-05da-4564-9e4a-8f330ecedc8a" x="-122.402378" y="37.773793" angle="224.63" type="veh_passenger" speed="10.11" pos="14.34" lane=":cluster_11667625376_65315491_0_0" slope="0.00"/>
    </timestep>
    <timestep time="14.00">
        <vehicle id="15a26312-4d07-4d65-8bd3-ca8d4cd44065" x="-122.472667" y="37.778705" angle="108.90" type="veh_passenger" speed="6.42" pos="12.16" lane=":65308520_14_0" slope="0.00"/>
        <vehicle id="19d26bbc-05da-4564-9e4a-8f330ecedc8a" x="-122.402475" y="37.773717" angle="225.10" type="veh_passenger" speed="12.00" pos="11.94" lane="-247966218#1_0" slope="0.00"/>
    </timestep>
    <timestep time="15.00">
        <vehicle id="15a26312-4d07-4d65-8bd3-ca8d4cd44065" x="-122.472587" y="37.778706" angle="86.41" type="veh_passenger" speed="7.09" pos="5.05" lane="-87231622#1_0" slope="0.00"/>
        <vehicle id="19d26bbc-05da-4564-9e4a-8f330ecedc8a" x="-122.402585" y="37.773631" angle="225.10" type="veh_passenger" speed="13.58" pos="25.52" lane="-247966218#1_0" slope="0.00"/>
    </timestep>
    <timestep time="16.00">
        <vehicle id="15a26312-4d07-4d65-8bd3-ca8d4cd44065" x="-122.472490" y="37.778711" angle="86.41" type="veh_passenger" speed="8.52" pos="13.57" lane="-87231622#1_0" slope="0.00"/>
        <vehicle id="19d26bbc-05da-4564-9e4a-8f330ecedc8a" x="-122.402714" y="37.773530" angle="224.62" type="veh_passenger" speed="15.96" pos="4.30" lane=":cluster_11667625374_11667639511_65291578_5_0" slope="0.00"/>
    </timestep>
    <timestep time="17.00">
        <vehicle id="15a26312-4d07-4d65-8bd3-ca8d4cd44065" x="-122.472417" y="37.778714" angle="86.41" type="veh_passenger" speed="6.46" pos="20.03" lane="-87231622#1_0" slope="0.00"/>
        <vehicle id="19d26bbc-05da-4564-9e4a-8f330ecedc8a" x="-122.402878" y="37.773441" angle="224.83" type="veh_passenger" speed="18.14" pos="5.81" lane="-417400703#2_0" slope="0.00"/>
    </timestep>
    <timestep time="18.00">
        <vehicle id="15a26312-4d07-4d65-8bd3-ca8d4cd44065" x="-122.472395" y="37.778715" angle="86.41" type="veh_passenger" speed="1.96" pos="21.99" lane="-87231622#1_0" slope="0.00"/>
        <vehicle id="19d26bbc-05da-4564-9e4a-8f330ecedc8a" x="-122.403003" y="37.773342" angle="224.83" type="veh_passenger" speed="15.51" pos="21.32" lane="-417400703#2_0" slope="0.00"/>
    </timestep>
    <timestep time="19.00">
        <vehicle id="15a26312-4d07-4d65-8bd3-ca8d4cd44065" x="-122.472395" y="37.778715" angle="86.41" type="veh_passenger" speed="0.00" pos="21.99" lane="-87231622#1_0" slope="0.00"/>
        <vehicle id="19d26bbc-05da-4564-9e4a-8f330ecedc8a" x="-122.403095" y="37.773270" angle="224.83" type="veh_passenger" speed="11.43" pos="32.75" lane="-417400703#2_0" slope="0.00"/>
    </timestep>
    <timestep time="20.00">
        <vehicle id="15a26312-4d07-4d65-8bd3-ca8d4cd44065" x="-122.472395" y="37.778715" angle="86.41" type="veh_passenger" speed="0.00" pos="21.99" lane="-87231622#1_0" slope="0.00"/>
        <vehicle id="19d26bbc-05da-4564-9e4a-8f330ecedc8a" x="-122.403150" y="37.773226" angle="224.83" type="veh_passenger" speed="6.93" pos="39.69" lane="-417400703#2_0" slope="0.00"/>
    </timestep>
    <timestep time="21.00">
        <vehicle id="15a26312-4d07-4d65-8bd3-ca8d4cd44065" x="-122.472395" y="37.778715" angle="86.41" type="veh_passenger" speed="0.00" pos="21.99" lane="-87231622#1_0" slope="0.00"/>
        <vehicle id="19d26bbc-05da-4564-9e4a-8f330ecedc8a" x="-122.403170" y="37.773211" angle="224.83" type="veh_passenger" speed="2.43" pos="42.12" lane="-417400703#2_0" slope="0.00"/>
    </timestep>
    <timestep time="22.00">
        <vehicle id="15a26312-4d07-4d65-8bd3-ca8d4cd44065" x="-122.472395" y="37.778715" angle="86.41" type="veh_passenger" speed="0.00" pos="21.99" lane="-87231622#1_0" slope="0.00"/>
        <vehicle id="19d26bbc-05da-4564-9e4a-8f330ecedc8a" x="-122.403172" y="37.773209" angle="224.83" type="veh_passenger" speed="0.23" pos="42.35" lane="-417400703#2_0" slope="0.00"/>
    </timestep>
    <timestep time="23.00">
        <vehicle id="15a26312-4d07-4d65-8bd3-ca8d4cd44065" x="-122.472395" y="37.778715" angle="86.41" type="veh_passenger" speed="0.00" pos="21.99" lane="-87231622#1_0" slope="0.00"/>
        <vehicle id="19d26bbc-05da-4564-9e4a-8f330ecedc8a" x="-122.403172" y="37.773209" angle="224.83" type="veh_passenger" speed="0.02" pos="42.37" lane="-417400703#2_0" slope="0.00"/>
    </timestep>
    <timestep time="24.00">
        <vehicle id="15a26312-4d07-4d65-8bd3-ca8d4cd44065" x="-122.472395" y="37.778715" angle="86.41" type="veh_passenger" speed="0.00" pos="21.99" lane="-87231622#1_0" slope="0.00"/>
        <vehicle id="19d26bbc-05da-4564-9e4a-8f330ecedc8a" x="-122.403172" y="37.773209" angle="224.83" type="veh_passenger" speed="0.00" pos="42.38" lane="-417400703#2_0" slope="0.00"/>
    </timestep>
    <timestep time="25.00">
        <vehicle id="15a26312-4d07-4d65-8bd3-ca8d4cd44065" x="-122.472395" y="37.778715" angle="86.41" type="veh_passenger" speed="0.00" pos="21.99" lane="-87231622#1_0" slope="0.00"/>
        <vehicle id="19d26bbc-05da-4564-9e4a-8f330ecedc8a" x="-122.403172" y="37.773209" angle="224.83" type="veh_passenger" speed="0.00" pos="42.38" lane="-417400703#2_0" slope="0.00"/>
    </timestep>
    <timestep time="26.00">
        <vehicle id="15a26312-4d07-4d65-8bd3-ca8d4cd44065" x="-122.472367" y="37.778716" angle="86.42" type="veh_passenger" speed="2.43" pos="1.43" lane=":cluster_258756006_65308518_9373695673_9373695674_#4more_11_0" slope="0.00"/>
        <vehicle id="19d26bbc-05da-4564-9e4a-8f330ecedc8a" x="-122.403172" y="37.773209" angle="224.83" type="veh_passenger" speed="0.00" pos="42.38" lane="-417400703#2_0" slope="0.00"/>
    </timestep>
    <timestep time="27.00">
        <vehicle id="15a26312-4d07-4d65-8bd3-ca8d4cd44065" x="-122.472317" y="37.778719" angle="86.46" type="veh_passenger" speed="4.44" pos="5.87" lane=":cluster_258756006_65308518_9373695673_9373695674_#4more_11_0" slope="0.00"/>
        <vehicle id="19d26bbc-05da-4564-9e4a-8f330ecedc8a" x="-122.403172" y="37.773209" angle="224.83" type="veh_passenger" speed="0.00" pos="42.38" lane="-417400703#2_0" slope="0.00"/>
    </timestep>
    <timestep time="28.00">
        <vehicle id="15a26312-4d07-4d65-8bd3-ca8d4cd44065" x="-122.472246" y="37.778722" angle="86.46" type="veh_passenger" speed="6.27" pos="12.14" lane=":cluster_258756006_65308518_9373695673_9373695674_#4more_11_0" slope="0.00"/>
        <vehicle id="19d26bbc-05da-4564-9e4a-8f330ecedc8a" x="-122.403172" y="37.773209" angle="224.83" type="veh_passenger" speed="0.00" pos="42.38" lane="-417400703#2_0" slope="0.00"/>
    </timestep>
    <timestep time="29.00">
        <vehicle id="15a26312-4d07-4d65-8bd3-ca8d4cd44065" x="-122.472157" y="37.778726" angle="86.46" type="veh_passenger" speed="7.80" pos="19.94" lane=":cluster_258756006_65308518_9373695673_9373695674_#4more_11_0" slope="0.00"/>
        <vehicle id="19d26bbc-05da-4564-9e4a-8f330ecedc8a" x="-122.403172" y="37.773209" angle="224.83" type="veh_passenger" speed="0.00" pos="42.38" lane="-417400703#2_0" slope="0.00"/>
    </timestep>
    <timestep time="30.00">
        <vehicle id="15a26312-4d07-4d65-8bd3-ca8d4cd44065" x="-122.472042" y="37.778731" angle="86.46" type="veh_passenger" speed="10.22" pos="30.16" lane=":cluster_258756006_65308518_9373695673_9373695674_#4more_11_0" slope="0.00"/>
        <vehicle id="19d26bbc-05da-4564-9e4a-8f330ecedc8a" x="-122.403172" y="37.773209" angle="224.83" type="veh_passenger" speed="0.00" pos="42.38" lane="-417400703#2_0" slope="0.00"/>
    </timestep>
    <timestep time="31.00">
        <vehicle id="15a26312-4d07-4d65-8bd3-ca8d4cd44065" x="-122.471909" y="37.778737" angle="86.51" type="veh_passenger" speed="11.67" pos="2.26" lane=":775098103_8_0" slope="0.00"/>
        <vehicle id="19d26bbc-05da-4564-9e4a-8f330ecedc8a" x="-122.403172" y="37.773209" angle="224.83" type="veh_passenger" speed="0.00" pos="42.38" lane="-417400703#2_0" slope="0.00"/>
    </timestep>
    <timestep time="32.00">
        <vehicle id="15a26312-4d07-4d65-8bd3-ca8d4cd44065" x="-122.471806" y="37.778741" angle="86.20" type="veh_passenger" speed="9.11" pos="4.31" lane="-86331259#15_0" slope="0.00"/>
        <vehicle id="19d26bbc-05da-4564-9e4a-8f330ecedc8a" x="-122.403172" y="37.773209" angle="224.83" type="veh_passenger" speed="0.00" pos="42.38" lane="-417400703#2_0" slope="0.00"/>
    </timestep>
    <timestep time="33.00">
        <vehicle id="15a26312-4d07-4d65-8bd3-ca8d4cd44065" x="-122.471754" y="37.778744" angle="86.17" type="veh_passenger" speed="4.61" pos="8.92" lane="-86331259#15_0" slope="0.00"/>
        <vehicle id="19d26bbc-05da-4564-9e4a-8f330ecedc8a" x="-122.403172" y="37.773209" angle="224.83" type="veh_passenger" speed="0.00" pos="42.38" lane="-417400703#2_0" slope="0.00"/>
    </timestep>
    <timestep time="34.00">
        <vehicle id="15a26312-4d07-4d65-8bd3-ca8d4cd44065" x="-122.471673" y="37.778748" angle="86.26" type="veh_passenger" speed="7.11" pos="5.84" lane=":65308516_9_0" slope="0.00"/>
        <vehicle id="19d26bbc-05da-4564-9e4a-8f330ecedc8a" x="-122.403172" y="37.773209" angle="224.83" type="veh_passenger" speed="0.00" pos="42.38" lane="-417400703#2_0" slope="0.00"/>
    </timestep>
    <timestep time="35.00">
        <vehicle id="15a26312-4d07-4d65-8bd3-ca8d4cd44065" x="-122.471570" y="37.778753" angle="86.27" type="veh_passenger" speed="9.07" pos="0.50" lane="-86331259#14_0" slope="0.00"/>
        <vehicle id="19d26bbc-05da-4564-9e4a-8f330ecedc8a" x="-122.403172" y="37.773209" angle="224.83" type="veh_passenger" speed="0.00" pos="42.38" lane="-417400703#2_0" slope="0.00"/>
    </timestep>
    <timestep time="36.00">
        <vehicle id="15a26312-4d07-4d65-8bd3-ca8d4cd44065" x="-122.471445" y="37.778758" angle="86.37" type="veh_passenger" speed="11.05" pos="11.55" lane="-86331259#14_0" slope="0.00"/>
        <vehicle id="19d26bbc-05da-4564-9e4a-8f330ecedc8a" x="-122.403172" y="37.773209" angle="224.83" type="veh_passenger" speed="0.00" pos="42.38" lane="-417400703#2_0" slope="0.00"/>
    </timestep>
    <timestep time="37.00">
        <vehicle id="15a26312-4d07-4d65-8bd3-ca8d4cd44065" x="-122.471308" y="37.778765" angle="86.37" type="veh_passenger" speed="12.12" pos="23.68" lane="-86331259#14_0" slope="0.00"/>
        <vehicle id="19d26bbc-05da-4564-9e4a-8f330ecedc8a" x="-122.403172" y="37.773209" angle="224.83" type="veh_passenger" speed="0.00" pos="42.38" lane="-417400703#2_0" slope="0.00"/>
    </timestep>
    <timestep time="38.00">
        <vehicle id="15a26312-4d07-4d65-8bd3-ca8d4cd44065" x="-122.471174" y="37.778771" angle="86.40" type="veh_passenger" speed="11.76" pos="9.18" lane=":1037753776_6_0" slope="0.00"/>
        <vehicle id="19d26bbc-05da-4564-9e4a-8f330ecedc8a" x="-122.403172" y="37.773209" angle="224.83" type="veh_passenger" speed="0.00" pos="42.38" lane="-417400703#2_0" slope="0.00"/>
    </timestep>
    <timestep time="39.00">
        <vehicle id="15a26312-4d07-4d65-8bd3-ca8d4cd44065" x="-122.471036" y="37.778777" angle="86.41" type="veh_passenger" speed="12.20" pos="11.97" lane="-86331259#13_0" slope="0.00"/>
        <vehicle id="19d26bbc-05da-4564-9e4a-8f330ecedc8a" x="-122.403172" y="37.773209" angle="224.83" type="veh_passenger" speed="0.00" pos="42.38" lane="-417400703#2_0" slope="0.00"/>
    </timestep>
    <timestep time="40.00">
        <vehicle id="15a26312-4d07-4d65-8bd3-ca8d4cd44065" x="-122.470894" y="37.778783" angle="86.41" type="veh_passenger" speed="12.51" pos="24.48" lane="-86331259#13_0" slope="0.00"/>
        <vehicle id="19d26bbc-05da-4564-9e4a-8f330ecedc8a" x="-122.403172" y="37.773209" angle="224.83" type="veh_passenger" speed="0.00" pos="42.38" lane="-417400703#2_0" slope="0.00"/>
    </timestep>
    <timestep time="41.00">
        <vehicle id="15a26312-4d07-4d65-8bd3-ca8d4cd44065" x="-122.470759" y="37.778790" angle="86.41" type="veh_passenger" speed="11.94" pos="36.42" lane="-86331259#13_0" slope="0.00"/>
        <vehicle id="19d26bbc-05da-4564-9e4a-8f330ecedc8a" x="-122.403172" y="37.773209" angle="224.83" type="veh_passenger" speed="0.00" pos="42.38" lane="-417400703#2_0" slope="0.00"/>
    </timestep>
    <timestep time="42.00">
        <vehicle id="15a26312-4d07-4d65-8bd3-ca8d4cd44065" x="-122.470623" y="37.778796" angle="86.37" type="veh_passenger" speed="12.02" pos="3.77" lane=":65280076_9_0" slope="0.00"/>
        <vehicle id="19d26bbc-05da-4564-9e4a-8f330ecedc8a" x="-122.403172" y="37.773209" angle="224.83" type="veh_passenger" speed="0.00" pos="42.38" lane="-417400703#2_0" slope="0.00"/>
    </timestep>
    <timestep time="43.00">
        <vehicle id="15a26312-4d07-4d65-8bd3-ca8d4cd44065" x="-122.470482" y="37.778802" angle="86.37" type="veh_passenger" speed="12.41" pos="1.79" lane="-86331259#12_0" slope="0.00"/>
        <vehicle id="19d26bbc-05da-4564-9e4a-8f330ecedc8a" x="-122.403172" y="37.773209" angle="224.83" type="veh_passenger" speed="0.00" pos="42.38" lane="-417400703#2_0" slope="0.00"/>
    </timestep>
    <timestep time="44.00">
        <vehicle id="15a26312-4d07-4d65-8bd3-ca8d4cd44065" x="-122.470334" y="37.778809" angle="86.39" type="veh_passenger" speed="13.02" pos="14.81" lane="-86331259#12_0" slope="0.00"/>
        <vehicle id="19d26bbc-05da-4564-9e4a-8f330ecedc8a" x="-122.403172" y="37.773209" angle="224.83" type="veh_passenger" speed="0.00" pos="42.38" lane="-417400703#2_0" slope="0.00"/>
    </timestep>
    <timestep time="45.00">
        <vehicle id="15a26312-4d07-4d65-8bd3-ca8d4cd44065" x="-122.470192" y="37.778815" angle="86.39" type="veh_passenger" speed="12.55" pos="27.36" lane="-86331259#12_0" slope="0.00"/>
        <vehicle id="19d26bbc-05da-4564-9e4a-8f330ecedc8a" x="-122.403172" y="37.773209" angle="224.83" type="veh_passenger" speed="0.00" pos="42.38" lane="-417400703#2_0" slope="0.00"/>
    </timestep>
    <timestep time="46.00">
        <vehicle id="15a26312-4d07-4d65-8bd3-ca8d4cd44065" x="-122.470050" y="37.778822" angle="86.39" type="veh_passenger" speed="12.52" pos="39.88" lane="-86331259#12_0" slope="0.00"/>
        <vehicle id="19d26bbc-05da-4564-9e4a-8f330ecedc8a" x="-122.403172" y="37.773209" angle="224.83" type="veh_passenger" speed="0.00" pos="42.38" lane="-417400703#2_0" slope="0.00"/>
    </timestep>
    <timestep time="47.00">
        <vehicle id="15a26312-4d07-4d65-8bd3-ca8d4cd44065" x="-122.469915" y="37.778828" angle="86.39" type="veh_passenger" speed="11.94" pos="51.82" lane="-86331259#12_0" slope="0.00"/>
        <vehicle id="19d26bbc-05da-4564-9e4a-8f330ecedc8a" x="-122.403172" y="37.773209" angle="224.83" type="veh_passenger" speed="0.00" pos="42.38" lane="-417400703#2_0" slope="0.00"/>
    </timestep>
    <timestep time="48.00">
        <vehicle id="15a26312-4d07-4d65-8bd3-ca8d4cd44065" x="-122.469777" y="37.778834" angle="86.39" type="veh_passenger" speed="12.12" pos="63.95" lane="-86331259#12_0" slope="0.00"/>
        <vehicle id="19d26bbc-05da-4564-9e4a-8f330ecedc8a" x="-122.403172" y="37.773209" angle="224.83" type="veh_passenger" speed="0.00" pos="42.38" lane="-417400703#2_0" slope="0.00"/>
    </timestep>
    <timestep time="49.00">
        <vehicle id="15a26312-4d07-4d65-8bd3-ca8d4cd44065" x="-122.469641" y="37.778841" angle="86.39" type="veh_passenger" speed="12.04" pos="75.98" lane="-86331259#12_0" slope="0.00"/>
        <vehicle id="19d26bbc-05da-4564-9e4a-8f330ecedc8a" x="-122.403183" y="37.773200" angle="224.49" type="veh_passenger" speed="1.37" pos="0.37" lane=":cluster_11413789709_11413789712_11413789713_11667625371_#6more_1_0" slope="0.00"/>
    </timestep>
    <timestep time="50.00">
        <vehicle id="15a26312-4d07-4d65-8bd3-ca8d4cd44065" x="-122.469503" y="37.778847" angle="86.42" type="veh_passenger" speed="12.14" pos="7.92" lane=":65308511_9_0" slope="0.00"/>
        <vehicle id="19d26bbc-05da-4564-9e4a-8f330ecedc8a" x="-122.403207" y="37.773177" angle="221.39" type="veh_passenger" speed="3.36" pos="3.72" lane=":cluster_11413789709_11413789712_11413789713_11667625371_#6more_1_0" slope="0.00"/>
    </timestep>
    <timestep time="51.00">
        <vehicle id="15a26312-4d07-4d65-8bd3-ca8d4cd44065" x="-122.469361" y="37.778853" angle="86.39" type="veh_passenger" speed="12.58" pos="6.09" lane="-86331259#11_0" slope="0.00"/>
        <vehicle id="19d26bbc-05da-4564-9e4a-8f330ecedc8a" x="-122.403243" y="37.773144" angle="220.21" type="veh_passenger" speed="4.79" pos="8.52" lane=":cluster_11413789709_11413789712_11413789713_11667625371_#6more_1_0" slope="0.00"/>
    </timestep>
    <timestep time="52.00">
        <vehicle id="15a26312-4d07-4d65-8bd3-ca8d4cd44065" x="-122.469218" y="37.778860" angle="86.39" type="veh_passenger" speed="12.56" pos="18.65" lane="-86331259#11_0" slope="0.00"/>
        <vehicle id="19d26bbc-05da-4564-9e4a-8f330ecedc8a" x="-122.403289" y="37.773091" angle="212.33" type="veh_passenger" speed="7.22" pos="15.74" lane=":cluster_11413789709_11413789712_11413789713_11667625371_#6more_1_0" slope="0.00"/>
    </timestep>
    <timestep time="53.00">
        <vehicle id="15a26312-4d07-4d65-8bd3-ca8d4cd44065" x="-122.469080" y="37.778866" angle="86.39" type="veh_passenger" speed="12.20" pos="30.85" lane="-86331259#11_0" slope="0.00"/>
        <vehicle id="19d26bbc-05da-4564-9e4a-8f330ecedc8a" x="-122.403342" y="37.773019" angle="208.89" type="veh_passenger" speed="9.23" pos="24.97" lane=":cluster_11413789709_11413789712_11413789713_11667625371_#6more_1_0" slope="0.00"/>
    </timestep>
    <timestep time="54.00">
        <vehicle id="15a26312-4d07-4d65-8bd3-ca8d4cd44065" x="-122.468935" y="37.778873" angle="86.39" type="veh_passenger" speed="12.77" pos="43.61" lane="-86331259#11_0" slope="0.00"/>
        <vehicle id="19d26bbc-05da-4564-9e4a-8f330ecedc8a" x="-122.403428" y="37.772941" angle="224.83" type="veh_passenger" speed="11.54" pos="6.93" lane="-417400701#0_0" slope="0.00"/>
    </timestep>
    <timestep time="55.00">
        <vehicle id="15a26312-4d07-4d65-8bd3-ca8d4cd44065" x="-122.468788" y="37.778879" angle="86.39" type="veh_passenger" speed="13.01" pos="56.62" lane="-86331259#11_0" slope="0.00"/>
        <vehicle id="19d26bbc-05da-4564-9e4a-8f330ecedc8a" x="-122.403541" y="37.772852" angle="224.83" type="veh_passenger" speed="14.06" pos="20.99" lane="-417400701#0_0" slope="0.00"/>
    </timestep>
    <timestep time="56.00">
        <vehicle id="15a26312-4d07-4d65-8bd3-ca8d4cd44065" x="-122.468658" y="37.778885" angle="86.39" type="veh_passenger" speed="11.45" pos="68.07" lane="-86331259#11_0" slope="0.00"/>
        <vehicle id="19d26bbc-05da-4564-9e4a-8f330ecedc8a" x="-122.403668" y="37.772752" angle="224.83" type="veh_passenger" speed="15.69" pos="36.68" lane="-417400701#0_0" slope="0.00"/>
    </timestep>
    <timestep time="57.00">
        <vehicle id="15a26312-4d07-4d65-8bd3-ca8d4cd44065" x="-122.468570" y="37.778889" angle="86.39" type="veh_passenger" speed="7.72" pos="75.79" lane="-86331259#11_0" slope="0.00"/>
        <vehicle id="19d26bbc-05da-4564-9e4a-8f330ecedc8a" x="-122.403805" y="37.772641" angle="223.34" type="veh_passenger" speed="17.24" pos="3.88" lane=":cluster_11667640293_5487246115_2_0" slope="0.00"/>
    </timestep>
    <timestep time="58.00">
        <vehicle id="15a26312-4d07-4d65-8bd3-ca8d4cd44065" x="-122.468464" y="37.778894" angle="86.42" type="veh_passenger" speed="9.39" pos="5.27" lane=":65308508_9_0" slope="0.00"/>
        <vehicle id="19d26bbc-05da-4564-9e4a-8f330ecedc8a" x="-122.403950" y="37.772518" angle="222.50" type="veh_passenger" speed="18.68" pos="13.35" lane="-784325413#2_0" slope="0.00"/>
    </timestep>
    <timestep time="59.00">
        <vehicle id="15a26312-4d07-4d65-8bd3-ca8d4cd44065" x="-122.468343" y="37.778900" angle="86.41" type="veh_passenger" speed="10.69" pos="1.56" lane="-86331259#10_0" slope="0.00"/>
        <vehicle id="19d26bbc-05da-4564-9e4a-8f330ecedc8a" x="-122.404117" y="37.772380" angle="224.50" type="veh_passenger" speed="21.28" pos="4.55" lane="-784325413#1_0" slope="0.00"/>
    </timestep>
    <timestep time="60.00">
        <vehicle id="15a26312-4d07-4d65-8bd3-ca8d4cd44065" x="-122.468203" y="37.778906" angle="86.38" type="veh_passenger" speed="12.32" pos="13.89" lane="-86331259#10_0" slope="0.00"/>
        <vehicle id="19d26bbc-05da-4564-9e4a-8f330ecedc8a" x="-122.404301" y="37.772233" angle="224.59" type="veh_passenger" speed="22.95" pos="27.50" lane="-784325413#1_0" slope="0.00"/>
    </timestep>
    <timestep time="61.00">
        <vehicle id="15a26312-4d07-4d65-8bd3-ca8d4cd44065" x="-122.468058" y="37.778913" angle="86.38" type="veh_passenger" speed="12.77" pos="26.66" lane="-86331259#10_0" slope="0.00"/>
        <vehicle id="19d26bbc-05da-4564-9e4a-8f330ecedc8a" x="-122.404505" y="37.772071" angle="224.59" type="veh_passenger" speed="25.49" pos="53.00" lane="-784325413#1_0" slope="0.00"/>
    </timestep>
    <timestep time="62.00">
        <vehicle id="15a26312-4d07-4d65-8bd3-ca8d4cd44065" x="-122.467925" y="37.778919" angle="86.38" type="veh_passenger" speed="11.76" pos="38.42" lane="-86331259#10_0" slope="0.00"/>
        <vehicle id="19d26bbc-05da-4564-9e4a-8f330ecedc8a" x="-122.404726" y="37.771896" angle="224.59" type="veh_passenger" speed="27.45" pos="80.45" lane="-784325413#1_0" slope="0.00"/>
    </timestep>
    <timestep time="63.00">
        <vehicle id="15a26312-4d07-4d65-8bd3-ca8d4cd44065" x="-122.467791" y="37.778925" angle="86.38" type="veh_passenger" speed="11.82" pos="50.24" lane="-86331259#10_0" slope="0.00"/>
        <vehicle id="19d26bbc-05da-4564-9e4a-8f330ecedc8a" x="-122.404913" y="37.771747" angle="224.56" type="veh_passenger" speed="23.33" pos="103.78" lane="-784325413#1_0" slope="0.00"/>
    </timestep>
    <timestep time="64.00">
        <vehicle id="15a26312-4d07-4d65-8bd3-ca8d4cd44065" x="-122.467644" y="37.778931" angle="86.38" type="veh_passenger" speed="12.92" pos="63.16" lane="-86331259#10_0" slope="0.00"/>
        <vehicle id="19d26bbc-05da-4564-9e4a-8f330ecedc8a" x="-122.405071" y="37.771621" angle="224.56" type="veh_passenger" speed="19.69" pos="123.47" lane="-784325413#1_0" slope="0.00"/>
    </timestep>
    <timestep time="65.00">
        <vehicle id="15a26312-4d07-4d65-8bd3-ca8d4cd44065" x="-122.467497" y="37.778938" angle="86.40" type="veh_passenger" speed="12.97" pos="3.11" lane=":cluster_10750130819_65297725_9_0" slope="0.00"/>
        <vehicle id="19d26bbc-05da-4564-9e4a-8f330ecedc8a" x="-122.405192" y="37.771524" angle="224.56" type="veh_passenger" speed="15.19" pos="138.66" lane="-784325413#1_0" slope="0.00"/>
    </timestep>
    <timestep time="66.00">
        <vehicle id="15a26312-4d07-4d65-8bd3-ca8d4cd44065" x="-122.467351" y="37.778945" angle="86.41" type="veh_passenger" speed="12.94" pos="16.05" lane=":cluster_10750130819_65297725_9_0" slope="0.00"/>
        <vehicle id="19d26bbc-05da-4564-9e4a-8f330ecedc8a" x="-122.405278" y="37.771456" angle="224.56" type="veh_passenger" speed="10.69" pos="149.35" lane="-784325413#1_0" slope="0.00"/>
    </timestep>
    <timestep time="67.00">
        <vehicle id="15a26312-4d07-4d65-8bd3-ca8d4cd44065" x="-122.467208" y="37.778951" angle="86.39" type="veh_passenger" speed="12.55" pos="7.34" lane="-86331259#8_0" slope="0.00"/>
        <vehicle id="19d26bbc-05da-4564-9e4a-8f330ecedc8a" x="-122.405328" y="37.771417" angle="224.56" type="veh_passenger" speed="6.19" pos="155.54" lane="-784325413#1_0" slope="0.00"/>
    </timestep>
    <timestep time="68.00">